<?xml version="1.0" encoding="UTF-8"?>

<!-- generated on 2025-05-23 13:03:34 by Eclipse SUMO GUI Version 1.22.0
<sumoConfiguration xmlns:xsi="http://www.w3.org/2001/XMLSchema-instance" xsi:noNamespaceSchemaLocation="http://sumo.dlr.de/xsd/sumoConfiguration.xsd">

    <input>
        <net-file value="maps/city1.net.xml"/>
        <route-files value="maps/city1.rou.xml"/>
    </input>

    <output>
        <tripinfo-output value="maps/city3.rou.xml"/>
    </output>

    <time>
        <begin value="0"/>
        <end value="200"/>
    </time>

    <report>
        <verbose value="true"/>
        <no-step-log value="true"/>
    </report>

    <traci_server>
        <remote-port value="50746"/>
    </traci_server>

</sumoConfiguration>
-->

<tripinfos xmlns:xsi="http://www.w3.org/2001/XMLSchema-instance" xsi:noNamespaceSchemaLocation="http://sumo.dlr.de/xsd/tripinfo_file.xsd">
    <tripinfo id="13" depart="13.00" departLane="-gneE14_0" departPos="5.10" departSpeed="0.00" departDelay="0.00" arrival="23.00" arrivalLane="-gneE14_0" arrivalPos="89.60" arrivalSpeed="14.27" duration="10.00" routeLength="84.50" waitingTime="0.00" waitingCount="0" stopTime="0.00" timeLoss="3.61" rerouteNo="0" devices="tripinfo_13" vType="DEFAULT_VEHTYPE" speedFactor="1.09" vaporized=""/>
    <tripinfo id="8" depart="8.00" departLane="-gneE26_0" departPos="5.10" departSpeed="0.00" departDelay="0.00" arrival="59.00" arrivalLane="gneE14_0" arrivalPos="89.60" arrivalSpeed="14.14" duration="51.00" routeLength="391.59" waitingTime="12.00" waitingCount="1" stopTime="0.00" timeLoss="23.34" rerouteNo="0" devices="tripinfo_8" vType="DEFAULT_VEHTYPE" speedFactor="1.05" vaporized=""/>
    <tripinfo id="33" depart="33.00" departLane="-gneE26_0" departPos="5.10" departSpeed="0.00" departDelay="0.00" arrival="81.00" arrivalLane="-gneE10_0" arrivalPos="96.80" arrivalSpeed="11.14" duration="48.00" routeLength="491.90" waitingTime="0.00" waitingCount="0" stopTime="0.00" timeLoss="4.90" rerouteNo="0" devices="tripinfo_33" vType="DEFAULT_VEHTYPE" speedFactor="0.83" vaporized=""/>
    <tripinfo id="56" depart="56.00" departLane="gneE0_0" departPos="5.10" departSpeed="0.00" departDelay="0.00" arrival="85.00" arrivalLane="-gneE20_0" arrivalPos="92.80" arrivalSpeed="14.08" duration="29.00" routeLength="284.16" waitingTime="0.00" waitingCount="0" stopTime="0.00" timeLoss="8.41" rerouteNo="0" devices="tripinfo_56" vType="DEFAULT_VEHTYPE" speedFactor="1.09" vaporized=""/>
    <tripinfo id="25" depart="25.00" departLane="-gneE34_0" departPos="5.10" departSpeed="0.00" departDelay="0.00" arrival="90.00" arrivalLane="-gneE22_0" arrivalPos="85.60" arrivalSpeed="13.00" duration="65.00" routeLength="580.18" waitingTime="4.00" waitingCount="1" stopTime="0.00" timeLoss="19.08" rerouteNo="0" devices="tripinfo_25" vType="DEFAULT_VEHTYPE" speedFactor="0.94" vaporized=""/>
    <tripinfo id="47" depart="50.00" departLane="-gneE13_0" departPos="5.10" departSpeed="0.00" departDelay="3.00" arrival="91.00" arrivalLane="-gneE38_0" arrivalPos="296.80" arrivalSpeed="16.07" duration="41.00" routeLength="490.87" waitingTime="0.00" waitingCount="0" stopTime="0.00" timeLoss="10.37" rerouteNo="0" devices="tripinfo_47" vType="DEFAULT_VEHTYPE" speedFactor="1.17" vaporized=""/>
    <tripinfo id="53" depart="53.00" departLane="-gneE18_0" departPos="5.10" departSpeed="0.00" departDelay="0.00" arrival="94.00" arrivalLane="-gneE5_0" arrivalPos="85.60" arrivalSpeed="11.45" duration="41.00" routeLength="275.23" waitingTime="9.00" waitingCount="1" stopTime="0.00" timeLoss="17.90" rerouteNo="0" devices="tripinfo_53" vType="DEFAULT_VEHTYPE" speedFactor="0.90" vaporized=""/>
    <tripinfo id="35" depart="38.00" departLane="-gneE25_0" departPos="5.10" departSpeed="0.00" departDelay="3.00" arrival="95.00" arrivalLane="gneE6_0" arrivalPos="92.80" arrivalSpeed="11.66" duration="57.00" routeLength="477.06" waitingTime="3.00" waitingCount="1" stopTime="0.00" timeLoss="15.65" rerouteNo="0" devices="tripinfo_35" vType="DEFAULT_VEHTYPE" speedFactor="0.87" vaporized=""/>
    <tripinfo id="90" depart="90.00" departLane="gneE23_0" departPos="5.10" departSpeed="0.00" departDelay="0.00" arrival="100.00" arrivalLane="gneE23_0" arrivalPos="89.60" arrivalSpeed="14.12" duration="10.00" routeLength="84.50" waitingTime="0.00" waitingCount="0" stopTime="0.00" timeLoss="3.07" rerouteNo="0" devices="tripinfo_90" vType="DEFAULT_VEHTYPE" speedFactor="1.02" vaporized=""/>
    <tripinfo id="20" depart="20.00" departLane="gneE22_0" departPos="5.10" departSpeed="0.00" departDelay="0.00" arrival="102.00" arrivalLane="-gneE10_0" arrivalPos="96.80" arrivalSpeed="11.81" duration="82.00" routeLength="579.33" waitingTime="18.00" waitingCount="2" stopTime="0.00" timeLoss="35.73" rerouteNo="0" devices="tripinfo_20" vType="DEFAULT_VEHTYPE" speedFactor="0.93" vaporized=""/>
    <tripinfo id="38" depart="38.00" departLane="gneE4_0" departPos="5.10" departSpeed="0.00" departDelay="0.00" arrival="110.00" arrivalLane="-gneE7_0" arrivalPos="92.80" arrivalSpeed="11.56" duration="72.00" routeLength="587.17" waitingTime="4.00" waitingCount="2" stopTime="0.00" timeLoss="22.83" rerouteNo="0" devices="tripinfo_38" vType="DEFAULT_VEHTYPE" speedFactor="0.92" vaporized=""/>
    <tripinfo id="5" depart="5.00" departLane="-gneE25_0" departPos="5.10" departSpeed="0.00" departDelay="0.00" arrival="116.00" arrivalLane="gneE1_0" arrivalPos="85.60" arrivalSpeed="14.21" duration="111.00" routeLength="774.81" waitingTime="38.00" waitingCount="2" stopTime="0.00" timeLoss="56.80" rerouteNo="0" devices="tripinfo_5" vType="DEFAULT_VEHTYPE" speedFactor="1.08" vaporized=""/>
    <tripinfo id="27" depart="27.00" departLane="gneE19_0" departPos="5.10" departSpeed="0.00" departDelay="0.00" arrival="117.00" arrivalLane="gneE17_0" arrivalPos="92.80" arrivalSpeed="16.01" duration="90.00" routeLength="585.39" waitingTime="33.00" waitingCount="1" stopTime="0.00" timeLoss="51.13" rerouteNo="0" devices="tripinfo_27" vType="DEFAULT_VEHTYPE" speedFactor="1.16" vaporized=""/>
    <tripinfo id="24" depart="24.00" departLane="gneE18_0" departPos="5.10" departSpeed="0.00" departDelay="0.00" arrival="121.00" arrivalLane="-gneE35_0" arrivalPos="292.80" arrivalSpeed="11.04" duration="97.00" routeLength="889.00" waitingTime="4.00" waitingCount="1" stopTime="0.00" timeLoss="20.45" rerouteNo="0" devices="tripinfo_24" vType="DEFAULT_VEHTYPE" speedFactor="0.88" vaporized=""/>
    <tripinfo id="88" depart="88.00" departLane="-gneE17_0" departPos="5.10" departSpeed="0.00" departDelay="0.00" arrival="121.00" arrivalLane="-gneE5_0" arrivalPos="85.60" arrivalSpeed="10.00" duration="33.00" routeLength="182.33" waitingTime="5.00" waitingCount="1" stopTime="0.00" timeLoss="16.98" rerouteNo="0" devices="tripinfo_88" vType="DEFAULT_VEHTYPE" speedFactor="0.91" vaporized=""/>
    <tripinfo id="73" depart="73.00" departLane="gneE10_0" departPos="5.10" departSpeed="0.00" departDelay="0.00" arrival="128.00" arrivalLane="gneE26_0" arrivalPos="92.80" arrivalSpeed="13.32" duration="55.00" routeLength="491.90" waitingTime="8.00" waitingCount="1" stopTime="0.00" timeLoss="19.41" rerouteNo="0" devices="tripinfo_73" vType="DEFAULT_VEHTYPE" speedFactor="1.00" vaporized=""/>
    <tripinfo id="4" depart="4.00" departLane="-gneE5_0" departPos="5.10" departSpeed="0.00" departDelay="0.00" arrival="139.00" arrivalLane="-gneE1_0" arrivalPos="85.60" arrivalSpeed="12.91" duration="135.00" routeLength="374.92" waitingTime="93.00" waitingCount="2" stopTime="0.00" timeLoss="106.38" rerouteNo="0" devices="tripinfo_4" vType="DEFAULT_VEHTYPE" speedFactor="1.01" vaporized=""/>
    <tripinfo id="49" depart="49.00" departLane="gneE8_0" departPos="5.10" departSpeed="0.00" departDelay="0.00" arrival="140.00" arrivalLane="gneE34_0" arrivalPos="85.60" arrivalSpeed="12.91" duration="91.00" routeLength="781.73" waitingTime="12.00" waitingCount="1" stopTime="0.00" timeLoss="34.17" rerouteNo="0" devices="tripinfo_49" vType="DEFAULT_VEHTYPE" speedFactor="1.02" vaporized=""/>
    <tripinfo id="94" depart="94.00" departLane="-gneE24_0" departPos="5.10" departSpeed="0.00" departDelay="0.00" arrival="140.00" arrivalLane="-gneE6_0" arrivalPos="92.80" arrivalSpeed="9.60" duration="46.00" routeLength="380.39" waitingTime="3.00" waitingCount="1" stopTime="0.00" timeLoss="16.75" rerouteNo="0" devices="tripinfo_94" vType="DEFAULT_VEHTYPE" speedFactor="0.97" vaporized=""/>
    <tripinfo id="0" depart="0.00" departLane="gneE18_0" departPos="5.10" departSpeed="0.00" departDelay="0.00" arrival="145.00" arrivalLane="-gneE1_0" arrivalPos="85.60" arrivalSpeed="8.11" duration="145.00" routeLength="682.01" waitingTime="69.00" waitingCount="3" stopTime="0.00" timeLoss="97.00" rerouteNo="0" devices="tripinfo_0" vType="DEFAULT_VEHTYPE" speedFactor="1.06" vaporized=""/>
    <tripinfo id="17" depart="17.00" departLane="-gneE36_0" departPos="5.10" departSpeed="0.00" departDelay="0.00" arrival="148.00" arrivalLane="gneE12_0" arrivalPos="85.60" arrivalSpeed="5.47" duration="131.00" routeLength="687.49" waitingTime="65.00" waitingCount="2" stopTime="0.00" timeLoss="86.19" rerouteNo="0" devices="tripinfo_17" vType="DEFAULT_VEHTYPE" speedFactor="1.12" vaporized=""/>
    <tripinfo id="97" depart="97.00" departLane="-gneE6_0" departPos="5.10" departSpeed="0.00" departDelay="0.00" arrival="148.00" arrivalLane="gneE34_0" arrivalPos="85.60" arrivalSpeed="14.07" duration="51.00" routeLength="282.33" waitingTime="20.00" waitingCount="1" stopTime="0.00" timeLoss="30.41" rerouteNo="0" devices="tripinfo_97" vType="DEFAULT_VEHTYPE" speedFactor="1.06" vaporized=""/>
    <tripinfo id="52" depart="52.00" departLane="-gneE29_0" departPos="5.10" departSpeed="0.00" departDelay="0.00" arrival="150.00" arrivalLane="gneE21_0" arrivalPos="87.62" arrivalSpeed="6.63" duration="98.00" routeLength="413.15" waitingTime="55.00" waitingCount="1" stopTime="0.00" timeLoss="69.96" rerouteNo="0" devices="tripinfo_52" vType="DEFAULT_VEHTYPE" speedFactor="1.10" vaporized=""/>
    <tripinfo id="9" depart="9.00" departLane="gneE3_0" departPos="5.10" departSpeed="0.00" departDelay="0.00" arrival="154.00" arrivalLane="-gneE0_0" arrivalPos="92.80" arrivalSpeed="11.34" duration="145.00" routeLength="671.38" waitingTime="67.00" waitingCount="2" stopTime="0.00" timeLoss="86.35" rerouteNo="0" devices="tripinfo_9" vType="DEFAULT_VEHTYPE" speedFactor="0.89" vaporized=""/>
    <tripinfo id="19" depart="19.00" departLane="gneE35_0" departPos="5.10" departSpeed="0.00" departDelay="0.00" arrival="156.00" arrivalLane="gneE13_0" arrivalPos="92.80" arrivalSpeed="13.06" duration="137.00" routeLength="789.32" waitingTime="62.00" waitingCount="1" stopTime="0.00" timeLoss="77.85" rerouteNo="0" devices="tripinfo_19" vType="DEFAULT_VEHTYPE" speedFactor="0.99" vaporized=""/>
    <tripinfo id="11" depart="11.00" departLane="-gneE32_0" departPos="5.10" departSpeed="0.00" departDelay="0.00" arrival="159.00" arrivalLane="-gneE19_0" arrivalPos="92.80" arrivalSpeed="11.73" duration="148.00" routeLength="1010.21" waitingTime="36.00" waitingCount="1" stopTime="0.00" timeLoss="60.22" rerouteNo="0" devices="tripinfo_11" vType="DEFAULT_VEHTYPE" speedFactor="0.86" vaporized=""/>
    <tripinfo id="74" depart="76.00" departLane="-gneE24_0" departPos="5.10" departSpeed="0.00" departDelay="2.00" arrival="163.00" arrivalLane="-gneE3_0" arrivalPos="185.60" arrivalSpeed="12.28" duration="87.00" routeLength="674.81" waitingTime="16.00" waitingCount="1" stopTime="0.00" timeLoss="30.98" rerouteNo="0" devices="tripinfo_74" vType="DEFAULT_VEHTYPE" speedFactor="0.90" vaporized=""/>
    <tripinfo id="117" depart="117.00" departLane="-gneE27_0" departPos="5.10" departSpeed="0.00" departDelay="0.00" arrival="165.00" arrivalLane="-gneE17_0" arrivalPos="92.80" arrivalSpeed="4.86" duration="48.00" routeLength="387.59" waitingTime="4.00" waitingCount="2" stopTime="0.00" timeLoss="19.79" rerouteNo="0" devices="tripinfo_117" vType="DEFAULT_VEHTYPE" speedFactor="1.02" vaporized=""/>
    <tripinfo id="85" depart="85.00" departLane="gneE5_0" departPos="5.10" departSpeed="0.00" departDelay="0.00" arrival="167.00" arrivalLane="gneE13_0" arrivalPos="92.80" arrivalSpeed="11.97" duration="82.00" routeLength="287.49" waitingTime="47.00" waitingCount="1" stopTime="0.00" timeLoss="59.03" rerouteNo="0" devices="tripinfo_85" vType="DEFAULT_VEHTYPE" speedFactor="0.94" vaporized=""/>
    <tripinfo id="28" depart="28.00" departLane="-gneE22_0" departPos="5.10" departSpeed="0.00" departDelay="0.00" arrival="175.00" arrivalLane="gneE26_0" arrivalPos="92.80" arrivalSpeed="13.60" duration="147.00" routeLength="787.27" waitingTime="70.00" waitingCount="2" stopTime="0.00" timeLoss="89.09" rerouteNo="0" devices="tripinfo_28" vType="DEFAULT_VEHTYPE" speedFactor="1.02" vaporized=""/>
    <tripinfo id="128" depart="129.00" departLane="-gneE13_0" departPos="5.10" departSpeed="0.00" departDelay="1.00" arrival="177.00" arrivalLane="-gneE22_0" arrivalPos="85.60" arrivalSpeed="11.29" duration="48.00" routeLength="476.85" waitingTime="0.00" waitingCount="0" stopTime="0.00" timeLoss="14.66" rerouteNo="0" devices="tripinfo_128" vType="DEFAULT_VEHTYPE" speedFactor="1.12" vaporized=""/>
    <tripinfo id="57" depart="58.00" departLane="gneE4_0" departPos="5.10" departSpeed="0.00" departDelay="1.00" arrival="180.00" arrivalLane="gneE34_0" arrivalPos="85.60" arrivalSpeed="13.20" duration="122.00" routeLength="664.18" waitingTime="46.00" waitingCount="2" stopTime="0.00" timeLoss="72.82" rerouteNo="0" devices="tripinfo_57" vType="DEFAULT_VEHTYPE" speedFactor="1.04" vaporized=""/>
    <tripinfo id="15" depart="15.00" departLane="gneE3_0" departPos="5.10" departSpeed="0.00" departDelay="0.00" arrival="184.00" arrivalLane="gneE26_0" arrivalPos="92.80" arrivalSpeed="14.09" duration="169.00" routeLength="782.22" waitingTime="82.00" waitingCount="3" stopTime="0.00" timeLoss="111.91" rerouteNo="0" devices="tripinfo_15" vType="DEFAULT_VEHTYPE" speedFactor="1.03" vaporized=""/>
    <tripinfo id="103" depart="103.00" departLane="-gneE4_0" departPos="5.10" departSpeed="0.00" departDelay="0.00" arrival="184.00" arrivalLane="-gneE11_0" arrivalPos="92.80" arrivalSpeed="13.23" duration="81.00" routeLength="781.52" waitingTime="5.00" waitingCount="2" stopTime="0.00" timeLoss="22.54" rerouteNo="0" devices="tripinfo_103" vType="DEFAULT_VEHTYPE" speedFactor="1.01" vaporized=""/>
    <tripinfo id="126" depart="126.00" departLane="-gneE13_0" departPos="5.10" departSpeed="0.00" departDelay="0.00" arrival="185.00" arrivalLane="-gneE7_0" arrivalPos="92.80" arrivalSpeed="12.95" duration="59.00" routeLength="583.84" waitingTime="0.00" waitingCount="0" stopTime="0.00" timeLoss="13.59" rerouteNo="0" devices="tripinfo_126" vType="DEFAULT_VEHTYPE" speedFactor="1.01" vaporized=""/>
    <tripinfo id="29" depart="31.00" departLane="-gneE22_0" departPos="5.10" departSpeed="0.00" departDelay="2.00" arrival="186.00" arrivalLane="-gneE38_0" arrivalPos="296.80" arrivalSpeed="13.68" duration="155.00" routeLength="883.56" waitingTime="65.00" waitingCount="2" stopTime="0.00" timeLoss="89.81" rerouteNo="0" devices="tripinfo_29" vType="DEFAULT_VEHTYPE" speedFactor="1.01" vaporized=""/>
    <tripinfo id="112" depart="112.00" departLane="-gneE12_0" departPos="5.10" departSpeed="0.00" departDelay="0.00" arrival="191.00" arrivalLane="gneE14_0" arrivalPos="89.60" arrivalSpeed="12.86" duration="79.00" routeLength="668.38" waitingTime="12.00" waitingCount="1" stopTime="0.00" timeLoss="28.62" rerouteNo="0" devices="tripinfo_112" vType="DEFAULT_VEHTYPE" speedFactor="1.00" vaporized=""/>
    <tripinfo id="26" depart="26.00" departLane="-gneE29_0" departPos="5.10" departSpeed="0.00" departDelay="0.00" arrival="192.00" arrivalLane="gneE5_0" arrivalPos="85.60" arrivalSpeed="11.75" duration="166.00" routeLength="707.67" waitingTime="88.00" waitingCount="2" stopTime="0.00" timeLoss="108.70" rerouteNo="0" devices="tripinfo_26" vType="DEFAULT_VEHTYPE" speedFactor="0.94" vaporized=""/>
    <tripinfo id="164" depart="164.00" departLane="gneE3_0" departPos="5.10" departSpeed="0.00" departDelay="0.00" arrival="193.00" arrivalLane="gneE34_0" arrivalPos="85.60" arrivalSpeed="8.31" duration="29.00" routeLength="280.29" waitingTime="0.00" waitingCount="0" stopTime="0.00" timeLoss="9.90" rerouteNo="0" devices="tripinfo_164" vType="DEFAULT_VEHTYPE" speedFactor="1.10" vaporized=""/>
    <tripinfo id="127" depart="131.00" departLane="gneE9_0" departPos="5.10" departSpeed="0.00" departDelay="4.00" arrival="199.00" arrivalLane="gneE9_0" arrivalPos="89.60" arrivalSpeed="9.62" duration="68.00" routeLength="84.50" waitingTime="50.00" waitingCount="1" stopTime="0.00" timeLoss="61.26" rerouteNo="0" devices="tripinfo_127" vType="DEFAULT_VEHTYPE" speedFactor="0.91" vaporized=""/>
    <tripinfo id="129" depart="129.00" departLane="-gneE28_0" departPos="5.10" departSpeed="0.00" departDelay="0.00" arrival="200.00" arrivalLane="gneE5_0" arrivalPos="85.60" arrivalSpeed="14.75" duration="71.00" routeLength="604.32" waitingTime="9.00" waitingCount="1" stopTime="0.00" timeLoss="29.41" rerouteNo="0" devices="tripinfo_129" vType="DEFAULT_VEHTYPE" speedFactor="1.10" vaporized=""/>
    <tripinfo id="71" depart="71.00" departLane="-gneE28_0" departPos="5.10" departSpeed="0.00" departDelay="0.00" arrival="203.00" arrivalLane="gneE34_0" arrivalPos="85.60" arrivalSpeed="14.35" duration="132.00" routeLength="699.16" waitingTime="58.00" waitingCount="2" stopTime="0.00" timeLoss="83.17" rerouteNo="0" devices="tripinfo_71" vType="DEFAULT_VEHTYPE" speedFactor="1.10" vaporized=""/>
    <tripinfo id="179" depart="179.00" departLane="-gneE17_0" departPos="5.10" departSpeed="0.00" departDelay="0.00" arrival="209.00" arrivalLane="-gneE5_0" arrivalPos="85.60" arrivalSpeed="7.86" duration="30.00" routeLength="182.33" waitingTime="0.00" waitingCount="0" stopTime="0.00" timeLoss="16.74" rerouteNo="0" devices="tripinfo_179" vType="DEFAULT_VEHTYPE" speedFactor="1.07" vaporized=""/>
    <tripinfo id="2" depart="2.00" departLane="gneE24_0" departPos="5.10" departSpeed="0.00" departDelay="0.00" arrival="215.00" arrivalLane="gneE23_0" arrivalPos="89.60" arrivalSpeed="12.29" duration="213.00" routeLength="768.59" waitingTime="120.00" waitingCount="4" stopTime="0.00" timeLoss="151.40" rerouteNo="0" devices="tripinfo_2" vType="DEFAULT_VEHTYPE" speedFactor="0.94" vaporized=""/>
    <tripinfo id="161" depart="161.00" departLane="gneE3_0" departPos="5.10" departSpeed="0.00" departDelay="0.00" arrival="216.00" arrivalLane="gneE36_0" arrivalPos="292.80" arrivalSpeed="12.77" duration="55.00" routeLength="582.12" waitingTime="0.00" waitingCount="0" stopTime="0.00" timeLoss="10.89" rerouteNo="0" devices="tripinfo_161" vType="DEFAULT_VEHTYPE" speedFactor="0.99" vaporized=""/>
    <tripinfo id="136" depart="136.00" departLane="gneE2_0" departPos="5.10" departSpeed="0.00" departDelay="0.00" arrival="224.00" arrivalLane="gneE6_0" arrivalPos="92.80" arrivalSpeed="11.39" duration="88.00" routeLength="287.70" waitingTime="55.00" waitingCount="1" stopTime="0.00" timeLoss="64.48" rerouteNo="0" devices="tripinfo_136" vType="DEFAULT_VEHTYPE" speedFactor="0.89" vaporized=""/>
    <tripinfo id="30" depart="30.00" departLane="gneE9_0" departPos="5.10" departSpeed="0.00" departDelay="0.00" arrival="228.00" arrivalLane="gneE2_0" arrivalPos="185.60" arrivalSpeed="8.52" duration="198.00" routeLength="379.13" waitingTime="146.00" waitingCount="2" stopTime="0.00" timeLoss="168.56" rerouteNo="0" devices="tripinfo_30" vType="DEFAULT_VEHTYPE" speedFactor="0.97" vaporized=""/>
    <tripinfo id="121" depart="121.00" departLane="gneE1_0" departPos="5.10" departSpeed="0.00" departDelay="0.00" arrival="228.00" arrivalLane="gneE5_0" arrivalPos="85.60" arrivalSpeed="10.85" duration="107.00" routeLength="374.92" waitingTime="56.00" waitingCount="2" stopTime="0.00" timeLoss="72.08" rerouteNo="0" devices="tripinfo_121" vType="DEFAULT_VEHTYPE" speedFactor="0.83" vaporized=""/>
    <tripinfo id="148" depart="148.00" departLane="-gneE5_0" departPos="5.10" departSpeed="0.00" departDelay="0.00" arrival="231.00" arrivalLane="-gneE0_0" arrivalPos="92.80" arrivalSpeed="14.61" duration="83.00" routeLength="487.49" waitingTime="35.00" waitingCount="1" stopTime="0.00" timeLoss="49.24" rerouteNo="0" devices="tripinfo_148" vType="DEFAULT_VEHTYPE" speedFactor="1.10" vaporized=""/>
    <tripinfo id="68" depart="68.00" departLane="-gneE13_0" departPos="5.10" departSpeed="0.00" departDelay="0.00" arrival="234.00" arrivalLane="gneE28_0" arrivalPos="216.45" arrivalSpeed="15.71" duration="166.00" routeLength="798.93" waitingTime="74.00" waitingCount="3" stopTime="0.00" timeLoss="115.05" rerouteNo="0" devices="tripinfo_68" vType="DEFAULT_VEHTYPE" speedFactor="1.17" vaporized=""/>
    <tripinfo id="16" depart="16.00" departLane="gneE10_0" departPos="5.10" departSpeed="0.00" departDelay="0.00" arrival="235.00" arrivalLane="gneE8_0" arrivalPos="85.60" arrivalSpeed="13.74" duration="219.00" routeLength="683.97" waitingTime="141.00" waitingCount="3" stopTime="0.00" timeLoss="169.47" rerouteNo="0" devices="tripinfo_16" vType="DEFAULT_VEHTYPE" speedFactor="1.05" vaporized=""/>
    <tripinfo id="131" depart="132.00" departLane="-gneE34_0" departPos="5.10" departSpeed="0.00" departDelay="1.00" arrival="235.00" arrivalLane="-gneE2_0" arrivalPos="185.60" arrivalSpeed="9.98" duration="103.00" routeLength="375.13" waitingTime="55.00" waitingCount="1" stopTime="0.00" timeLoss="73.52" rerouteNo="0" devices="tripinfo_131" vType="DEFAULT_VEHTYPE" speedFactor="0.96" vaporized=""/>
    <tripinfo id="124" depart="124.00" departLane="gneE2_0" departPos="5.10" departSpeed="0.00" departDelay="0.00" arrival="237.00" arrivalLane="-gneE3_0" arrivalPos="185.60" arrivalSpeed="15.04" duration="113.00" routeLength="480.08" waitingTime="66.00" waitingCount="1" stopTime="0.00" timeLoss="79.52" rerouteNo="0" devices="tripinfo_124" vType="DEFAULT_VEHTYPE" speedFactor="1.09" vaporized=""/>
    <tripinfo id="141" depart="144.00" departLane="gneE18_0" departPos="5.10" departSpeed="0.00" departDelay="3.00" arrival="239.00" arrivalLane="-gneE25_0" arrivalPos="92.80" arrivalSpeed="12.70" duration="95.00" routeLength="284.16" waitingTime="59.00" waitingCount="1" stopTime="0.00" timeLoss="70.92" rerouteNo="0" devices="tripinfo_141" vType="DEFAULT_VEHTYPE" speedFactor="0.96" vaporized=""/>
    <tripinfo id="146" depart="147.00" departLane="gneE18_0" departPos="5.10" departSpeed="0.00" departDelay="1.00" arrival="240.00" arrivalLane="-gneE25_0" arrivalPos="92.80" arrivalSpeed="14.18" duration="93.00" routeLength="284.16" waitingTime="58.00" waitingCount="1" stopTime="0.00" timeLoss="72.94" rerouteNo="0" devices="tripinfo_146" vType="DEFAULT_VEHTYPE" speedFactor="1.10" vaporized=""/>
    <tripinfo id="10" depart="12.00" departLane="gneE3_0" departPos="5.10" departSpeed="0.00" departDelay="2.00" arrival="241.00" arrivalLane="gneE24_0" arrivalPos="85.60" arrivalSpeed="8.51" duration="229.00" routeLength="669.65" waitingTime="139.00" waitingCount="4" stopTime="0.00" timeLoss="174.80" rerouteNo="0" devices="tripinfo_10" vType="DEFAULT_VEHTYPE" speedFactor="0.94" vaporized=""/>
</tripinfos>
